============================== echo of input deck ==============================
echo
# Taken from http://www.nwchem-sw.org/index.php/Release66:Hartree-Fock_Theory_for_Molecules
start dimer
title "Water dimer SCF using fragment initial guess"

geometry dimer
O   -0.595   1.165  -0.048
H    0.110   1.812  -0.170
H   -1.452   1.598  -0.154
O    0.724  -1.284   0.034
H    0.175  -2.013   0.348
H    0.177  -0.480   0.010
end

geometry h2o1
O   -0.595   1.165  -0.048
H    0.110   1.812  -0.170
H   -1.452   1.598  -0.154
end

geometry h2o2
O    0.724  -1.284   0.034
H    0.175  -2.013   0.348
H    0.177  -0.480   0.010
end

basis
    o library 3-21g
    h library 3-21g
end

set geometry h2o1
scf
    vectors input atomic output h2o1.movecs
    print "final vectors"
end
task scf

set geometry h2o2
scf
    vectors input atomic output h2o2.movecs
    print "final vectors"
end
task scf

set geometry dimer
scf
    vectors input fragment h2o1.movecs h2o2.movecs \
    output dimer.movecs
    print "final vectors"
    #print "final vectors analysis"    # For MO coefficient matrix
end

task scf
================================================================================

 Output coordinates in angstroms (scale by  1.889725989 to convert to a.u.)

  No.       Tag          Charge          X              Y              Z
 ---- ---------------- ---------- -------------- -------------- --------------
    1 O                    8.0000     0.11360598    -0.00175830     0.00000000
    2 H                    1.0000    -0.46007431    -0.77785682     0.00000000
    3 H                    1.0000    -0.44877352     0.79192319     0.00000000

         Total SCF energy =    -75.585864511957

 Vector    2  Occ=2.000000D+00  E=-1.319450D+00  Symmetry=a1

 Vector    3  Occ=2.000000D+00  E=-6.889997D-01  Symmetry=b1

 Vector    4  Occ=2.000000D+00  E=-5.263121D-01  Symmetry=a1

 Vector    5  Occ=2.000000D+00  E=-4.761355D-01  Symmetry=b2

 Vector    6  Occ=0.000000D+00  E= 2.615446D-01  Symmetry=a1

 Vector    7  Occ=0.000000D+00  E= 3.616315D-01  Symmetry=b1

 Vector    8  Occ=0.000000D+00  E= 1.218141D+00  Symmetry=b1

 Vector    9  Occ=0.000000D+00  E= 1.266758D+00  Symmetry=a1

 Vector   10  Occ=0.000000D+00  E= 1.785045D+00  Symmetry=b2

 Vector   11  Occ=0.000000D+00  E= 1.859716D+00  Symmetry=a1

 Vector   12  Occ=0.000000D+00  E= 2.029839D+00  Symmetry=b1

 Vector   13  Occ=0.000000D+00  E= 3.101314D+00  Symmetry=a1

         Total SCF energy =    -75.585910413747

 Vector    2  Occ=2.000000D+00  E=-1.319260D+00  Symmetry=a'

 Vector    3  Occ=2.000000D+00  E=-6.850967D-01  Symmetry=a'

 Vector    4  Occ=2.000000D+00  E=-5.284446D-01  Symmetry=a'

 Vector    5  Occ=2.000000D+00  E=-4.767977D-01  Symmetry=a"

 Vector    6  Occ=0.000000D+00  E= 2.603272D-01  Symmetry=a'

 Vector    7  Occ=0.000000D+00  E= 3.598190D-01  Symmetry=a'

 Vector    8  Occ=0.000000D+00  E= 1.208361D+00  Symmetry=a'

 Vector    9  Occ=0.000000D+00  E= 1.270837D+00  Symmetry=a'

 Vector   10  Occ=0.000000D+00  E= 1.784245D+00  Symmetry=a"

 Vector   11  Occ=0.000000D+00  E= 1.862962D+00  Symmetry=a'

 Vector   12  Occ=0.000000D+00  E= 2.026543D+00  Symmetry=a'

 Vector   13  Occ=0.000000D+00  E= 3.101186D+00  Symmetry=a'

         Total SCF energy =   -151.187952149465

 Vector    2  Occ=2.000000D+00  E=-2.037094D+01

 Vector    3  Occ=2.000000D+00  E=-1.358606D+00

 Vector    4  Occ=2.000000D+00  E=-1.269552D+00

 Vector    5  Occ=2.000000D+00  E=-7.284562D-01

 Vector    6  Occ=2.000000D+00  E=-6.525420D-01

 Vector    7  Occ=2.000000D+00  E=-5.645803D-01

 Vector    8  Occ=2.000000D+00  E=-5.172689D-01

 Vector    9  Occ=2.000000D+00  E=-4.763464D-01

 Vector   10  Occ=2.000000D+00  E=-4.281521D-01

 Vector   11  Occ=0.000000D+00  E= 2.301643D-01

 Vector   12  Occ=0.000000D+00  E= 3.286383D-01

 Vector   13  Occ=0.000000D+00  E= 3.353431D-01

 Vector   14  Occ=0.000000D+00  E= 5.053666D-01

 Vector   15  Occ=0.000000D+00  E= 1.189773D+00

 Vector   16  Occ=0.000000D+00  E= 1.227325D+00

 Vector   17  Occ=0.000000D+00  E= 1.285501D+00

 Vector   18  Occ=0.000000D+00  E= 1.335560D+00

 Vector   19  Occ=0.000000D+00  E= 1.744031D+00

 Vector   20  Occ=0.000000D+00  E= 1.833818D+00

       Multipole analysis of the density wrt the origin
       ------------------------------------------------

     L   x y z        total         open         nuclear
     -   - - -        -----         ----         -------
     0   0 0 0     -0.000000      0.000000     20.000000

     1   1 0 0     -0.468064      0.000000      0.000000
     1   0 1 0      1.643991      0.000000     -0.000000
     1   0 0 1      0.016250      0.000000     -0.000000

     2   2 0 0     -7.008478      0.000000      6.486184
     2   1 1 0      3.128571      0.000000      3.141136
     2   1 0 1      0.048777      0.000000      0.027091
     2   0 2 0     -5.470185      0.000000    148.944861
     2   0 1 1     -0.949670      0.000000     -0.910772

 Total times  cpu:        4.3s     wall:        8.1s
