============================== echo of input deck ==============================
echo
start ch3nh2
title ch3nh2

geometry  units angstrom  noautoz nocenter
symmetry c1
C       0.745914       0.011106       0.000000
N      -0.721743      -0.071848       0.000000
H       1.042059       1.060105       0.000000
H       1.129298      -0.483355       0.892539
H       1.129298      -0.483355      -0.892539
H      -1.076988       0.386322      -0.827032
H      -1.076988       0.386322       0.827032
end

basis SPHERICAL
 * library aug-cc-pVDZ
end

charge 0

scf
 singlet
 maxiter 30
 print "final vectors" "final vectors analysis"
end

task scf
================================================================================

 Output coordinates in angstroms (scale by  1.889725989 to convert to a.u.)

  No.       Tag          Charge          X              Y              Z
 ---- ---------------- ---------- -------------- -------------- --------------
    1 C                    6.0000     0.74591400     0.01110600     0.00000000
    2 N                    7.0000    -0.72174300    -0.07184800     0.00000000
    3 H                    1.0000     1.04205900     1.06010500     0.00000000
    4 H                    1.0000     1.12929800    -0.48335500     0.89253900
    5 H                    1.0000     1.12929800    -0.48335500    -0.89253900
    6 H                    1.0000    -1.07698800     0.38632200    -0.82703200
    7 H                    1.0000    -1.07698800     0.38632200     0.82703200

         Total SCF energy =    -95.229251733997

 Vector   12  Occ=0.000000D+00  E= 5.315754D-02

 Vector   13  Occ=0.000000D+00  E= 6.142203D-02

 Vector   14  Occ=0.000000D+00  E= 8.269855D-02

 Vector   15  Occ=0.000000D+00  E= 1.156136D-01

 Vector   16  Occ=0.000000D+00  E= 1.523460D-01

 Vector   17  Occ=0.000000D+00  E= 1.524564D-01

 Vector   18  Occ=0.000000D+00  E= 1.712927D-01

 Vector   19  Occ=0.000000D+00  E= 1.755608D-01

 Vector   20  Occ=0.000000D+00  E= 1.973321D-01

 Vector   21  Occ=0.000000D+00  E= 2.098648D-01

 Vector   22  Occ=0.000000D+00  E= 2.712955D-01

 Vector   23  Occ=0.000000D+00  E= 2.932670D-01

 Vector   24  Occ=0.000000D+00  E= 2.971043D-01

 Vector   25  Occ=0.000000D+00  E= 3.200551D-01

 Vector   26  Occ=0.000000D+00  E= 3.466135D-01

 Vector   27  Occ=0.000000D+00  E= 3.691132D-01

 Vector   28  Occ=0.000000D+00  E= 4.023706D-01

 Vector   29  Occ=0.000000D+00  E= 4.042653D-01

 Vector   30  Occ=0.000000D+00  E= 4.377748D-01

 Vector   31  Occ=0.000000D+00  E= 4.493400D-01

 Vector   32  Occ=0.000000D+00  E= 4.503028D-01

 Vector   33  Occ=0.000000D+00  E= 4.806326D-01

 Vector   34  Occ=0.000000D+00  E= 4.918414D-01

 Vector   35  Occ=0.000000D+00  E= 5.318693D-01

 Vector   36  Occ=0.000000D+00  E= 5.419024D-01

 Vector   37  Occ=0.000000D+00  E= 5.777798D-01

 Vector   38  Occ=0.000000D+00  E= 5.783342D-01

 Vector   39  Occ=0.000000D+00  E= 6.201531D-01

 Vector   40  Occ=0.000000D+00  E= 6.298087D-01

 Vector   41  Occ=0.000000D+00  E= 6.337214D-01

 Vector   42  Occ=0.000000D+00  E= 6.631429D-01

 Vector   43  Occ=0.000000D+00  E= 6.701141D-01

 Vector   44  Occ=0.000000D+00  E= 6.820420D-01

 Vector   45  Occ=0.000000D+00  E= 6.853487D-01

 Vector   46  Occ=0.000000D+00  E= 7.116963D-01

 Vector   47  Occ=0.000000D+00  E= 7.331496D-01

 Vector   48  Occ=0.000000D+00  E= 7.411211D-01

 Vector   49  Occ=0.000000D+00  E= 8.559141D-01

 Vector   50  Occ=0.000000D+00  E= 8.750968D-01

 Vector   51  Occ=0.000000D+00  E= 9.025193D-01

 Vector   52  Occ=0.000000D+00  E= 1.013315D+00

 Vector   53  Occ=0.000000D+00  E= 1.033525D+00

 Vector   54  Occ=0.000000D+00  E= 1.095641D+00

 Vector   55  Occ=0.000000D+00  E= 1.103180D+00

 Vector   56  Occ=0.000000D+00  E= 1.116385D+00

 Vector   57  Occ=0.000000D+00  E= 1.263952D+00

 Vector   58  Occ=0.000000D+00  E= 1.313831D+00

 Vector   59  Occ=0.000000D+00  E= 1.368851D+00

 Vector   60  Occ=0.000000D+00  E= 1.413903D+00

 Vector   61  Occ=0.000000D+00  E= 1.577138D+00

 Vector   62  Occ=0.000000D+00  E= 1.609560D+00

 Vector   63  Occ=0.000000D+00  E= 1.731354D+00

 Vector   64  Occ=0.000000D+00  E= 1.754430D+00

 Vector   65  Occ=0.000000D+00  E= 1.886660D+00

 Vector   66  Occ=0.000000D+00  E= 1.905779D+00

 Vector   67  Occ=0.000000D+00  E= 1.927710D+00

 Vector   68  Occ=0.000000D+00  E= 1.954014D+00

 Vector   69  Occ=0.000000D+00  E= 2.060689D+00

 Vector   70  Occ=0.000000D+00  E= 2.095604D+00

 Vector   71  Occ=0.000000D+00  E= 2.113853D+00

 Vector   72  Occ=0.000000D+00  E= 2.165882D+00

 Vector   73  Occ=0.000000D+00  E= 2.181491D+00

 Vector   74  Occ=0.000000D+00  E= 2.271506D+00

 Vector   75  Occ=0.000000D+00  E= 2.327855D+00

 Vector   76  Occ=0.000000D+00  E= 2.333570D+00

 Vector   77  Occ=0.000000D+00  E= 2.399772D+00

 Vector   78  Occ=0.000000D+00  E= 2.467213D+00

 Vector   79  Occ=0.000000D+00  E= 2.472818D+00

 Vector   80  Occ=0.000000D+00  E= 2.539899D+00

 Vector   81  Occ=0.000000D+00  E= 2.622179D+00

 Vector   82  Occ=0.000000D+00  E= 2.657187D+00

 Vector   83  Occ=0.000000D+00  E= 2.726589D+00

 Vector   84  Occ=0.000000D+00  E= 2.882670D+00

 Vector   85  Occ=0.000000D+00  E= 2.883778D+00

 Vector   86  Occ=0.000000D+00  E= 2.913499D+00

 Vector   87  Occ=0.000000D+00  E= 3.034495D+00

 Vector   88  Occ=0.000000D+00  E= 3.059546D+00

 Vector   89  Occ=0.000000D+00  E= 3.074835D+00

 Vector   90  Occ=0.000000D+00  E= 3.380757D+00

 Vector   91  Occ=0.000000D+00  E= 3.634046D+00

       Multipole analysis of the density wrt the origin
       ------------------------------------------------

     L   x y z        total         open         nuclear
     -   - - -        -----         ----         -------
     0   0 0 0     -0.000000      0.000000     18.000000

     1   1 0 0      0.158164      0.000000      1.077072
     1   0 1 0      0.533166      0.000000      0.812089
     1   0 0 1      0.000000      0.000000      0.000000

     2   2 0 0    -10.790896      0.000000     46.213279
     2   1 1 0     -1.574945      0.000000     -1.451440
     2   1 0 1      0.000000      0.000000      0.000000
     2   0 2 0    -11.370949      0.000000      6.879481
     2   0 1 1      0.000000      0.000000      0.000000

 Total times  cpu:        3.9s     wall:        4.1s
