============================== echo of input deck ==============================
echo
start ch3nh2
title ch3nh2

geometry  units angstrom  noautoz nocenter
symmetry c1
C       0.745914       0.011106       0.000000
N      -0.721743      -0.071848       0.000000
H       1.042059       1.060105       0.000000
H       1.129298      -0.483355       0.892539
H       1.129298      -0.483355      -0.892539
H      -1.076988       0.386322      -0.827032
H      -1.076988       0.386322       0.827032
end

basis SPHERICAL
 * library 6-31G
end

charge 0

scf
 singlet
 maxiter 30
 print "final vectors" "final vectors analysis"
end

task scf
================================================================================

 Output coordinates in angstroms (scale by  1.889725989 to convert to a.u.)

  No.       Tag          Charge          X              Y              Z
 ---- ---------------- ---------- -------------- -------------- --------------
    1 C                    6.0000     0.74591400     0.01110600     0.00000000
    2 N                    7.0000    -0.72174300    -0.07184800     0.00000000
    3 H                    1.0000     1.04205900     1.06010500     0.00000000
    4 H                    1.0000     1.12929800    -0.48335500     0.89253900
    5 H                    1.0000     1.12929800    -0.48335500    -0.89253900
    6 H                    1.0000    -1.07698800     0.38632200    -0.82703200
    7 H                    1.0000    -1.07698800     0.38632200     0.82703200

         Total SCF energy =    -95.166631197263

 Vector    1  Occ=2.000000D+00  E=-1.553524D+01

 Vector    2  Occ=2.000000D+00  E=-1.124378D+01

 Vector    3  Occ=2.000000D+00  E=-1.174305D+00

 Vector    4  Occ=2.000000D+00  E=-8.977384D-01

 Vector    5  Occ=2.000000D+00  E=-6.672430D-01

 Vector    6  Occ=2.000000D+00  E=-5.969760D-01

 Vector    7  Occ=2.000000D+00  E=-5.527579D-01

 Vector    8  Occ=2.000000D+00  E=-5.221298D-01

 Vector    9  Occ=2.000000D+00  E=-3.760883D-01

 Vector   10  Occ=0.000000D+00  E= 2.213619D-01

 Vector   11  Occ=0.000000D+00  E= 2.860097D-01

 Vector   12  Occ=0.000000D+00  E= 3.038307D-01

 Vector   13  Occ=0.000000D+00  E= 3.232025D-01

 Vector   14  Occ=0.000000D+00  E= 3.319713D-01

 Vector   15  Occ=0.000000D+00  E= 4.049654D-01

 Vector   16  Occ=0.000000D+00  E= 7.882995D-01

 Vector   17  Occ=0.000000D+00  E= 7.988065D-01

 Vector   18  Occ=0.000000D+00  E= 8.051311D-01

 Vector   19  Occ=0.000000D+00  E= 1.014405D+00

 Vector   20  Occ=0.000000D+00  E= 1.026900D+00

 Vector   21  Occ=0.000000D+00  E= 1.060972D+00

 Vector   22  Occ=0.000000D+00  E= 1.179856D+00

 Vector   23  Occ=0.000000D+00  E= 1.240097D+00

 Vector   24  Occ=0.000000D+00  E= 1.244170D+00

 Vector   25  Occ=0.000000D+00  E= 1.271508D+00

 Vector   26  Occ=0.000000D+00  E= 1.277887D+00

 Vector   27  Occ=0.000000D+00  E= 1.338639D+00

 Vector   28  Occ=0.000000D+00  E= 1.796421D+00

       Multipole analysis of the density wrt the origin
       ------------------------------------------------

     L   x y z        total         open         nuclear
     -   - - -        -----         ----         -------
     0   0 0 0     -0.000000      0.000000     18.000000

     1   1 0 0      0.227892      0.000000      1.077072
     1   0 1 0      0.705779      0.000000      0.812089
     1   0 0 1     -0.000000      0.000000      0.000000

     2   2 0 0    -10.646210      0.000000     46.213279
     2   1 1 0     -1.830655      0.000000     -1.451440
     2   1 0 1      0.000000      0.000000      0.000000
     2   0 2 0    -11.340904      0.000000      6.879481
     2   0 1 1      0.000000      0.000000      0.000000

 Total times  cpu:        0.3s     wall:        1.2s
