============================== echo of input deck ==============================

echo
start h2o-spher
title h2o-spher

geometry units atomic
symmetry c1
O    0.015430 -1.243955  0.407682
H    2.851070  0.834185  0.489629
H   -2.682386  1.026473  0.460734
end

basis spherical
 O library cc-pvdz
 H library cc-pvdz
end

dft
 mult 1
 grid xfine
 xc b3lyp
 iterations 100
 print "final vectors" "final vectors analysis"
end

property
 nbofile 2
end

task dft property

================================================================================

 Output coordinates in a.u. (scale by  1.000000000 to convert to a.u.)

  No.       Tag          Charge          X              Y              Z
 ---- ---------------- ---------- -------------- -------------- --------------
    1 O                    8.0000    -0.01378240    -0.43485680    -0.01349990
    2 H                    1.0000     2.82185760     1.64328320     0.06844710
    3 H                    1.0000    -2.71159840     1.83557120     0.03955210

         Total DFT energy =      -76.107467524249

                       DFT Final Molecular Orbital Analysis
                       ------------------------------------

 Vector    1  Occ=2.000000D+00  E=-1.921649D+01

 Vector    2  Occ=2.000000D+00  E=-8.810441D-01

 Vector    3  Occ=2.000000D+00  E=-3.454515D-01

 Vector    4  Occ=2.000000D+00  E=-3.277986D-01

 Vector    5  Occ=2.000000D+00  E=-2.878867D-01

 Vector    6  Occ=0.000000D+00  E=-1.600361D-01

 Vector    7  Occ=0.000000D+00  E=-1.345644D-01

 Vector    8  Occ=0.000000D+00  E= 4.186948D-01

 Vector    9  Occ=0.000000D+00  E= 4.698316D-01

 Vector   10  Occ=0.000000D+00  E= 8.898312D-01

 Vector   11  Occ=0.000000D+00  E= 8.958377D-01

 Vector   12  Occ=0.000000D+00  E= 9.059626D-01

 Vector   13  Occ=0.000000D+00  E= 1.055061D+00

 Vector   14  Occ=0.000000D+00  E= 1.231368D+00

 Vector   15  Occ=0.000000D+00  E= 1.235973D+00

 Vector   16  Occ=0.000000D+00  E= 1.263179D+00

 Vector   17  Occ=0.000000D+00  E= 1.286198D+00

 Vector   18  Occ=0.000000D+00  E= 1.505435D+00

 Vector   19  Occ=0.000000D+00  E= 1.744443D+00

 Vector   20  Occ=0.000000D+00  E= 2.587008D+00

 Vector   21  Occ=0.000000D+00  E= 2.605202D+00

 Vector   22  Occ=0.000000D+00  E= 2.605777D+00

 Vector   23  Occ=0.000000D+00  E= 2.651001D+00

 Vector   24  Occ=0.000000D+00  E= 2.669425D+00

     Multipole analysis of the density
     ---------------------------------

     L   x y z        total         alpha         beta         nuclear
     -   - - -        -----         -----         ----         -------
     0   0 0 0     -0.000000     -5.000000     -5.000000     10.000000

     1   1 0 0      0.023304      0.011652      0.011652      0.000000
     1   0 1 0      0.668329      0.334164      0.334164      0.000000
     1   0 0 1      0.020761      0.010381      0.010381     -0.000000

     2   2 0 0     -2.381222     -8.849194     -8.849194     15.317166
     2   1 1 0     -0.065861      0.113206      0.113206     -0.292274
     2   1 0 1      0.021819     -0.032784     -0.032784      0.087387
     2   0 2 0     -4.275890     -5.929197     -5.929197      7.582505
     2   0 1 1      0.058034     -0.087004     -0.087004      0.232043

 Total times  cpu:       10.1s     wall:       11.7s
