============================== echo of input deck ==============================

echo
start h2o-cart
title h2o-cart

geometry units atomic
symmetry c1
O    0.015430 -1.243955  0.407682
H    2.851070  0.834185  0.489629
H   -2.682386  1.026473  0.460734
end

basis cartesian
 O library cc-pvdz
 H library cc-pvdz
end

dft
 mult 1
 grid xfine
 xc b3lyp
 iterations 100
 print "final vectors" "final vectors analysis"
end

property
 nbofile 2
end

task dft property

================================================================================

 Output coordinates in a.u. (scale by  1.000000000 to convert to a.u.)

  No.       Tag          Charge          X              Y              Z
 ---- ---------------- ---------- -------------- -------------- --------------
    1 O                    8.0000    -0.01378240    -0.43485680    -0.01349990
    2 H                    1.0000     2.82185760     1.64328320     0.06844710
    3 H                    1.0000    -2.71159840     1.83557120     0.03955210

         Total DFT energy =      -76.108677640594

                       DFT Final Molecular Orbital Analysis
                       ------------------------------------

 Vector    1  Occ=2.000000D+00  E=-1.921896D+01

 Vector    2  Occ=2.000000D+00  E=-8.816892D-01

 Vector    3  Occ=2.000000D+00  E=-3.458037D-01

 Vector    4  Occ=2.000000D+00  E=-3.281798D-01

 Vector    5  Occ=2.000000D+00  E=-2.882247D-01

 Vector    6  Occ=0.000000D+00  E=-1.603935D-01

 Vector    7  Occ=0.000000D+00  E=-1.348558D-01

 Vector    8  Occ=0.000000D+00  E= 4.180465D-01

 Vector    9  Occ=0.000000D+00  E= 4.696380D-01

 Vector   10  Occ=0.000000D+00  E= 8.895593D-01

 Vector   11  Occ=0.000000D+00  E= 8.944269D-01

 Vector   12  Occ=0.000000D+00  E= 9.056194D-01

 Vector   13  Occ=0.000000D+00  E= 9.824977D-01

 Vector   14  Occ=0.000000D+00  E= 1.231100D+00

 Vector   15  Occ=0.000000D+00  E= 1.235697D+00

 Vector   16  Occ=0.000000D+00  E= 1.257636D+00

 Vector   17  Occ=0.000000D+00  E= 1.285919D+00

 Vector   18  Occ=0.000000D+00  E= 1.505093D+00

 Vector   19  Occ=0.000000D+00  E= 1.707370D+00

 Vector   20  Occ=0.000000D+00  E= 2.586587D+00

 Vector   21  Occ=0.000000D+00  E= 2.604769D+00

 Vector   22  Occ=0.000000D+00  E= 2.605329D+00

 Vector   23  Occ=0.000000D+00  E= 2.650452D+00

 Vector   24  Occ=0.000000D+00  E= 2.669025D+00

 Vector   25  Occ=0.000000D+00  E= 5.198073D+00

     Multipole analysis of the density
     ---------------------------------

     L   x y z        total         alpha         beta         nuclear
     -   - - -        -----         -----         ----         -------
     0   0 0 0     -0.000000     -5.000000     -5.000000     10.000000

     1   1 0 0      0.023387      0.011694      0.011694      0.000000
     1   0 1 0      0.671812      0.335906      0.335906      0.000000
     1   0 0 1      0.020869      0.010435      0.010435     -0.000000

     2   2 0 0     -2.382658     -8.849912     -8.849912     15.317166
     2   1 1 0     -0.066183      0.113046      0.113046     -0.292274
     2   1 0 1      0.021850     -0.032768     -0.032768      0.087387
     2   0 2 0     -4.284299     -5.933402     -5.933402      7.582505
     2   0 1 1      0.058017     -0.087013     -0.087013      0.232043

 Total times  cpu:       11.3s     wall:       13.1s
