 Gaussian 09, Revision D.01,
 Gaussian 09:  EM64L-G09RevD.01 24-Apr-2013

 ----------------------------
 # HF/6-31G gfinput pop(full)
 ----------------------------

 ------
 ch3nh2
 ------
 Symbolic Z-matrix:
 Charge =  0 Multiplicity = 1

                         Standard orientation:
 ---------------------------------------------------------------------
 Center     Atomic      Atomic             Coordinates (Angstroms)
 Number     Number       Type             X           Y           Z
 ---------------------------------------------------------------------
      1          6           0        0.053054    0.712391    0.000000
      2          7           0        0.053054   -0.757609    0.000000
      3          1           0       -0.977561    1.067260    0.000000
      4          1           0        0.568362    1.067261    0.892539
      5          1           0        0.568362    1.067261   -0.892539
      6          1           0       -0.424433   -1.086433   -0.827032
      7          1           0       -0.424433   -1.086433    0.827032
 ---------------------------------------------------------------------

 SCF Done:  E(RHF) =  -95.1666311655     A.U. after   11 cycles

 The electronic state is 1-A'.
 Alpha  occ. eigenvalues --  -15.53524 -11.24378  -1.17430  -0.89774  -0.66724
 Alpha  occ. eigenvalues --   -0.59698  -0.55276  -0.52213  -0.37609
 Alpha virt. eigenvalues --    0.22136   0.28601   0.30383   0.32320   0.33197
 Alpha virt. eigenvalues --    0.40497   0.78830   0.79881   0.80513   1.01441
 Alpha virt. eigenvalues --    1.02690   1.06097   1.17986   1.24010   1.24417

 Mulliken charges:
               1
     1  C   -0.269541
     2  N   -0.801405
     3  H    0.128284
     4  H    0.166439
     5  H    0.166439
     6  H    0.304892
     7  H    0.304892
 Sum of Mulliken charges =   0.00000

 Dipole moment (field-independent basis, Debye):
    X=             -1.7584    Y=              0.6795    Z=              0.0000  Tot=              1.8851
 Quadrupole moment (field-independent basis, Debye-Ang):
   XX=            -15.0510   YY=            -14.6447   ZZ=            -12.4104
   XY=              2.5722   XZ=              0.0000   YZ=              0.0000

 Normal termination of Gaussian 09 at Fri Jan 20 22:04:48 2017.
