 Gaussian 09, Revision D.01,
 Gaussian 09:  EM64L-G09RevD.01 24-Apr-2013

 ----------------------------------------------------------------------
 #p b3lyp/6-311++G** SCF=Tight Freq=(SaveNormalModes, HPModes) Int=Ultr
 aFine NoSymm
 ----------------------------------------------------------------------

 -------
 comment
 -------
 Symbolic Z-matrix:
 Charge =  0 Multiplicity = 1

                          Input orientation:
 ---------------------------------------------------------------------
 Center     Atomic      Atomic             Coordinates (Angstroms)
 Number     Number       Type             X           Y           Z
 ---------------------------------------------------------------------
      1          1           0        0.113225   -2.246153    0.000000
      2          1           0       -3.114439   -1.153049    0.000000
      3          1           0       -2.604195    0.551321    0.000000
      4          1           0        3.331386   -0.303365    0.000000
      5          1           0        2.384715    1.195970    0.000000
      6          6           0        1.338138   -0.557407    0.000000
      7          8           0        1.439276   -1.815370    0.000000
      8          7           0        2.451087    0.187500    0.000000
      9          6           0        0.000000    0.054058    0.000000
     10          6           0       -1.130692   -0.832839    0.000000
     11          8           0       -0.937651   -2.120000    0.000000
     12          7           0       -0.189571    1.454266    0.000000
     13          8           0        0.796638    2.209915    0.000000
     14          8           0       -1.345536    1.920966    0.000000
     15          7           0       -2.401115   -0.440578    0.000000
 ---------------------------------------------------------------------

 SCF Done:  E(RB3LYP) =  -582.613029543     A.U. after   15 cycles

 Alpha  occ. eigenvalues --  -19.17660 -19.15867 -19.15853 -19.13195 -14.56300
 Alpha  occ. eigenvalues --  -14.37576 -14.35777 -10.33961 -10.32183 -10.24968
 Alpha  occ. eigenvalues --   -1.23489  -1.12728  -1.07508  -1.05665  -0.96684
 Alpha  occ. eigenvalues --   -0.93898  -0.85616  -0.70837  -0.67488  -0.65407
 Alpha  occ. eigenvalues --   -0.59254  -0.58755  -0.56258  -0.54845  -0.53477
 Alpha  occ. eigenvalues --   -0.52574  -0.50357  -0.47741  -0.45916  -0.44205
 Alpha  occ. eigenvalues --   -0.42912  -0.34015  -0.33205  -0.32471  -0.32137
 Alpha  occ. eigenvalues --   -0.30556  -0.29734  -0.27343
 Alpha virt. eigenvalues --   -0.08910  -0.03897  -0.01639  -0.00487   0.02064
 Alpha virt. eigenvalues --    0.02460   0.03678   0.04063   0.05360   0.07400
 Alpha virt. eigenvalues --    0.07445   0.08426   0.08804   0.10023   0.10043

 Mulliken charges:
               1
     1  H    0.407662
     2  H    0.316474
     3  H    0.321213
     4  H    0.314174
     5  H    0.307805
     6  C    0.015942
     7  O   -0.447044
     8  N   -0.374304
     9  C    0.382802
    10  C   -0.072966
    11  O   -0.345360
    12  N   -0.288841
    13  O   -0.084554
    14  O   -0.083202
    15  N   -0.369802
 Sum of Mulliken charges =   0.00000

 Dipole moment (field-independent basis, Debye):
    X=             -0.6545    Y=             -1.4342    Z=              0.0000  Tot=              1.5764
 Quadrupole moment (field-independent basis, Debye-Ang):
   XX=            -41.4572   YY=            -72.4001   ZZ=            -58.4266
   XY=              5.5081   XZ=              0.0000   YZ=              0.0000

  Exact polarizability: 104.536   3.483  96.228   0.000   0.000  42.860
 Approx polarizability: 164.697   7.747 160.668   0.000   0.000  61.623

                      1                      2                      3
                      A                      A                      A
 Frequencies --     85.0080                89.2980               146.0938
 Red. masses --     10.2023                 8.2827                10.7995
 Frc consts  --      0.0434                 0.0389                 0.1358
 IR Inten    --      0.9583                 4.2698                 0.0514

                      4                      5                      6
                      A                      A                      A
 Frequencies --    217.7044               321.2187               354.5780
 Red. masses --      5.9975                 5.4869                 5.5909
 Frc consts  --      0.1675                 0.3336                 0.4141
 IR Inten    --      5.4051                 7.2798                47.0442

                      7                      8                      9
                      A                      A                      A
 Frequencies --    401.8461               418.5165               425.1361
 Red. masses --      4.8954                 1.1612                 4.2599
 Frc consts  --      0.4658                 0.1198                 0.4536
 IR Inten    --     10.3872               163.8445                11.0600

                     10                     11                     12
                      A                      A                      A
 Frequencies --    433.8649               461.3834               485.2559
 Red. masses --      1.1765                 5.6721                12.2728
 Frc consts  --      0.1305                 0.7114                 1.7027
 IR Inten    --    224.6778                41.0030                 0.6041

                     13                     14                     15
                      A                      A                      A
 Frequencies --    609.5492               666.6224               685.1458
 Red. masses --      3.5993                 1.3165                 1.5129
 Frc consts  --      0.7879                 0.3447                 0.4184
 IR Inten    --      4.4991                13.4206                13.0270

                     16                     17                     18
                      A                      A                      A
 Frequencies --    703.9867               714.8923               725.8460
 Red. masses --      3.5530                11.0339                 2.4495
 Frc consts  --      1.0375                 3.3225                 0.7604
 IR Inten    --     54.1639                14.9059                 0.1870

                     19                     20                     21
                      A                      A                      A
 Frequencies --    762.7623               846.2009              1075.2799
 Red. masses --      3.9039                 8.9246                 2.0642
 Frc consts  --      1.3382                 3.7652                 1.4062
 IR Inten    --      6.0498                 6.9179                63.3084

                     22                     23                     24
                      A                      A                      A
 Frequencies --   1094.6573              1106.1919              1161.5569
 Red. masses --      2.1296                 1.0487                 6.2553
 Frc consts  --      1.5035                 0.7561                 4.9726
 IR Inten    --     37.1853               101.2718                21.7418

                     25                     26                     27
                      A                      A                      A
 Frequencies --   1174.0859              1267.0070              1316.6858
 Red. masses --      4.6100                 2.7113                 5.8233
 Frc consts  --      3.7442                 2.5644                 5.9482
 IR Inten    --     14.3802                27.5643               422.6773

                     28                     29                     30
                      A                      A                      A
 Frequencies --   1395.2727              1452.0588              1555.7098
 Red. masses --      2.9720                 2.8154                 2.7693
 Frc consts  --      3.4090                 3.4975                 3.9489
 IR Inten    --     36.1673               185.7041               291.1860

                     31                     32                     33
                      A                      A                      A
 Frequencies --   1575.8509              1598.1694              1631.3412
 Red. masses --      1.5803                 2.3805                 3.6335
 Frc consts  --      2.3121                 3.5824                 5.6972
 IR Inten    --     36.2925               383.6589              1361.8952

                     34                     35                     36
                      A                      A                      A
 Frequencies --   1711.0372              2260.2558              3520.0701
 Red. masses --      2.3776                 1.1154                 1.0493
 Frc consts  --      4.1012                 3.3574                 7.6602
 IR Inten    --    277.3078               917.4517                71.3058

                     37                     38                     39
                      A                      A                      A
 Frequencies --   3541.8855              3686.8891              3696.3885
 Red. masses --      1.0472                 1.1026                 1.1045
 Frc consts  --      7.7398                 8.8303                 8.8910
 IR Inten    --     76.3284               153.1364               143.5559

 - Thermochemistry -
 -------------------
 Temperature   298.150 Kelvin.  Pressure   1.00000 Atm.
 Atom     1 has atomic number  1 and mass   1.00783

 Molecular mass:   147.02801 amu.
 Principal axes and moments of inertia in atomic units:
                           1         2         3
     Eigenvalues --  1124.436211150.073312274.50952
           X            0.99893  -0.04617   0.00000
           Y            0.04617   0.99893   0.00000
           Z            0.00000   0.00000   1.00000
 This molecule is an asymmetric top.
 Rotational symmetry number  1.
 Warning -- assumption of classical behavior for rotation
           may cause significant error
 Rotational temperatures (Kelvin)      0.07703     0.07531     0.03808
 Rotational constants (GHZ):           1.60502     1.56924     0.79346
 Zero-point vibrational energy     271404.6 (Joules/Mol)
                                   64.86725 (Kcal/Mol)
 Warning -- explicit consideration of  13 degrees of freedom as
           vibrations may cause significant error
 Vibrational temperatures:    122.31   128.48   210.20   313.23   462.16
          (Kelvin)            510.16   578.17   602.15   611.68   624.23
                              663.83   698.17   877.00   959.12   985.77
                             1012.88  1028.57  1044.33  1097.44  1217.49
                             1547.09  1574.97  1591.56  1671.22  1689.25
                             1822.94  1894.41  2007.48  2089.19  2238.32
                             2267.30  2299.41  2347.13  2461.80  3252.00
                             5064.59  5095.98  5304.60  5318.27

 Zero-point correction=                           0.103373 (Hartree/Particle)
 Thermal correction to Energy=                    0.112356
 Thermal correction to Enthalpy=                  0.113300
 Thermal correction to Gibbs Free Energy=         0.069225
 Sum of electronic and zero-point Energies=           -582.509657
 Sum of electronic and thermal Energies=              -582.500674
 Sum of electronic and thermal Enthalpies=            -582.499730
 Sum of electronic and thermal Free Energies=         -582.543804

                     E (Thermal)             CV                S
                      KCal/Mol        Cal/Mol-Kelvin    Cal/Mol-Kelvin
 Total                   70.504             33.657             92.763
 Electronic               0.000              0.000              0.000
 Translational            0.889              2.981             40.867
 Rotational               0.889              2.981             29.466
 Vibrational             68.727             27.696             22.430
 Vibration     1          0.601              1.960              3.772
 Vibration     2          0.602              1.957              3.675
 Vibration     3          0.617              1.907              2.722
 Vibration     4          0.646              1.814              1.978
 Vibration     5          0.707              1.633              1.304
 Vibration     6          0.730              1.566              1.146
 Vibration     7          0.767              1.466              0.956
 Vibration     8          0.781              1.430              0.897
 Vibration     9          0.787              1.416              0.875
 Vibration    10          0.795              1.396              0.846
 Vibration    11          0.819              1.336              0.762
 Vibration    12          0.841              1.283              0.696
 Vibration    13          0.969              1.012              0.434

 Optimization completed.
    -- Stationary point found.
 Normal termination of Gaussian 09 at Tue Mar 19 17:07:28 2019.
