 Gaussian 16, Revision A.03,
 Gaussian 16:  ES64L-G16RevA.03 25-Dec-2016

 --------------------------------
 #P BLYP/def2TZVP TD=(NStates=15)
 --------------------------------

 -----
 tddft
 -----
 Symbolic Z-matrix:
 Charge =  0 Multiplicity = 1

                         Standard orientation:
 ---------------------------------------------------------------------
 Center     Atomic      Atomic             Coordinates (Angstroms)
 Number     Number       Type             X           Y           Z
 ---------------------------------------------------------------------
      1          8           0       -0.736326    0.117131   -0.055561
      2          8           0        0.736327   -0.117131   -0.055560
      3          1           0       -1.022697   -0.674659    0.444488
      4          1           0        1.022694    0.674665    0.444484
 ---------------------------------------------------------------------

 SCF Done:  E(RB-LYP) =  -151.601153341     A.U. after   11 cycles

 Excitation energies and oscillator strengths:

 Excited State   1:      Singlet-A      5.1074 eV  242.76 nm  f=0.0015  <S**2>=0.000
       9 -> 10         0.70722
 This state for optimization and/or second-order correction.
 Total Energy, E(TD-HF/TD-DFT) =  -151.413461214
 Copying the excited state density for this state as the 1-particle RhoCI density.

 Excited State   2:      Singlet-A      6.2556 eV  198.20 nm  f=0.0015  <S**2>=0.000
       8 -> 10         0.23701
       9 -> 11         0.66464

 Excited State   3:      Singlet-A      6.4229 eV  193.03 nm  f=0.0090  <S**2>=0.000
       8 -> 10         0.66113
       9 -> 11        -0.24023

 Excited State   4:      Singlet-A      7.4561 eV  166.29 nm  f=0.0052  <S**2>=0.000
       8 -> 11        -0.27713
       9 -> 12         0.64888

 Excited State   5:      Singlet-A      7.5163 eV  164.95 nm  f=0.0068  <S**2>=0.000
       8 -> 11         0.64988
       9 -> 12         0.27800

 Excited State   6:      Singlet-A      8.7082 eV  142.38 nm  f=0.0226  <S**2>=0.000
       8 -> 12         0.70318

 Excited State   7:      Singlet-A      9.3565 eV  132.51 nm  f=0.0780  <S**2>=0.000
       5 -> 10        -0.21550
       7 -> 10         0.66001

 Excited State   8:      Singlet-A      9.9833 eV  124.19 nm  f=0.0338  <S**2>=0.000
       7 -> 11         0.70291

 Excited State   9:      Singlet-A     10.5996 eV  116.97 nm  f=0.0015  <S**2>=0.000
       6 -> 10         0.70210

 Excited State  10:      Singlet-A     11.1793 eV  110.91 nm  f=0.0010  <S**2>=0.000
       5 -> 10        -0.13954
       6 -> 11         0.11461
       7 -> 12         0.68113

 Excited State  11:      Singlet-A     12.0141 eV  103.20 nm  f=0.1668  <S**2>=0.000
       6 -> 11         0.68858
       7 -> 12        -0.11031

 Excited State  12:      Singlet-A     12.9644 eV   95.63 nm  f=0.0054  <S**2>=0.000
       5 -> 11         0.57486
       6 -> 12        -0.40687

 Excited State  13:      Singlet-A     12.9811 eV   95.51 nm  f=0.5927  <S**2>=0.000
       5 -> 10         0.57399
       5 -> 12        -0.32953
       7 -> 10         0.16536
       7 -> 12         0.11122

 Excited State  14:      Singlet-A     13.5286 eV   91.65 nm  f=0.0860  <S**2>=0.000
       5 -> 11         0.39769
       6 -> 12         0.56186

 Excited State  15:      Singlet-A     14.9812 eV   82.76 nm  f=0.2276  <S**2>=0.000
       5 -> 10         0.23386
       5 -> 12         0.57149
       7 -> 10         0.10294
       8 -> 15        -0.11485
       9 -> 16         0.25947

 The electronic state is 1-A.
 Alpha  occ. eigenvalues --  -18.83191 -18.83188  -1.00800  -0.81919  -0.47360
 Alpha  occ. eigenvalues --   -0.43309  -0.36546  -0.27557  -0.23076
 Alpha virt. eigenvalues --   -0.06024  -0.00387   0.03973   0.33734   0.34436
 Alpha virt. eigenvalues --    0.35163   0.37261   0.41263   0.44259   0.46534
 Alpha virt. eigenvalues --    0.52162   0.58715   0.66937   1.01236   1.08036

 Mulliken charges:
               1
     1  O   -0.316138
     2  O   -0.316137
     3  H    0.316137
     4  H    0.316138
 Sum of Mulliken charges =  -0.00000

 Dipole moment (field-independent basis, Debye):
    X=             -0.0000    Y=              0.0000    Z=              1.7311  Tot=              1.7311
 Quadrupole moment (field-independent basis, Debye-Ang):
   XX=            -10.5762   YY=            -10.6444   ZZ=            -12.0992
   XY=              3.1708   XZ=             -0.0000   YZ=              0.0000

 Normal termination of Gaussian 16 at Sat Mar 16 16:12:05 2019.
