 Gaussian 16, Revision A.03,
 Gaussian 16:  ES64L-G16RevA.03 25-Dec-2016

 ----------------------------------------------------------------------
 #P blyp/def2TZVP SCF=Tight Int=UltraFine NoSymm FREQ=(SaveNormalModes)
 ----------------------------------------------------------------------

 ----
 freq
 ----
 Symbolic Z-matrix:
 Charge =  0 Multiplicity = 1

                          Input orientation:
 ---------------------------------------------------------------------
 Center     Atomic      Atomic             Coordinates (Angstroms)
 Number     Number       Type             X           Y           Z
 ---------------------------------------------------------------------
      1          8           0       -0.879112   -0.180294    0.205257
      2          6           0        0.574200   -0.157646    0.122588
      3          6           0       -0.185517    1.088353    0.340116
      4          6           0        1.185420   -0.520407   -1.211416
      5          1           0        1.058604   -0.603865    0.998120
      6          1           0       -0.228052    1.538075    1.335550
      7          1           0       -0.325346    1.782434   -0.493154
      8          1           0        2.241636   -0.216103   -1.245734
      9          1           0        1.142471   -1.606131   -1.374270
     10          1           0        0.651796   -0.027264   -2.033329
 ---------------------------------------------------------------------

 SCF Done:  E(RB-LYP) =  -193.109317474     A.U. after   13 cycles

 Alpha  occ. eigenvalues --  -18.77971  -9.96323  -9.95559  -9.90797  -0.96245
 Alpha  occ. eigenvalues --   -0.66978  -0.58980  -0.52994  -0.44772  -0.41359
 Alpha  occ. eigenvalues --   -0.37684  -0.35601  -0.32909  -0.32119  -0.26342
 Alpha  occ. eigenvalues --   -0.21966
 Alpha virt. eigenvalues --    0.02570   0.04282   0.05007   0.05091   0.06466
 Alpha virt. eigenvalues --    0.08605   0.09141   0.10254   0.13895   0.17035
 Alpha virt. eigenvalues --    0.19742   0.20206   0.23635   0.24754   0.26869

 Mulliken charges:
               1
     1  O   -0.337960
     2  C    0.099513
     3  C   -0.029579
     4  C   -0.301262
     5  H    0.088240
     6  H    0.087609
     7  H    0.084643
     8  H    0.094344
     9  H    0.108279
    10  H    0.106174
 Sum of Mulliken charges =  -0.00000

 Dipole moment (field-independent basis, Debye):
    X=              1.7548    Y=              0.8279    Z=             -0.1453  Tot=              1.9457
 Quadrupole moment (field-independent basis, Debye-Ang):
   XX=            -26.9358   YY=            -23.9917   ZZ=            -24.4761
   XY=             -1.4948   XZ=              0.2050   YZ=              0.3365

  Exact polarizability:  39.678  -4.846  42.503  -2.893   2.969  40.029
 Approx polarizability:  67.437  -3.508  69.472  -1.567   2.352  59.075

                      1                      2                      3
                      A                      A                      A
 Frequencies --    202.1285               355.3692               399.4567
 Red. masses --      1.0923                 2.3795                 2.4341
 Frc consts  --      0.0263                 0.1771                 0.2288
 IR Inten    --      0.3995                 3.7016                 4.0105

                      4                      5                      6
                      A                      A                      A
 Frequencies --    719.8958               798.6941               876.5361
 Red. masses --      4.5471                 3.1986                 1.4246
 Frc consts  --      1.3884                 1.2022                 0.6449
 IR Inten    --     10.1582                40.7777                 3.8151

                      7                      8                      9
                      A                      A                      A
 Frequencies --    930.8152              1008.3240              1090.8789
 Red. masses --      1.9859                 1.1614                 1.4745
 Frc consts  --      1.0138                 0.6957                 1.0339
 IR Inten    --     12.7853                 6.6599                 5.2374

                     10                     11                     12
                      A                      A                      A
 Frequencies --   1114.5786              1126.0977              1150.7720
 Red. masses --      1.3721                 1.5157                 1.6427
 Frc consts  --      1.0043                 1.1324                 1.2817
 IR Inten    --      1.6667                 3.2872                 0.2685

                     13                     14                     15
                      A                      A                      A
 Frequencies --   1249.1507              1370.6982              1390.3147
 Red. masses --      1.7037                 1.2544                 1.6055
 Frc consts  --      1.5663                 1.3886                 1.8284
 IR Inten    --      4.9652                 3.6810                21.5943

                     16                     17                     18
                      A                      A                      A
 Frequencies --   1447.4342              1460.5020              1484.8707
 Red. masses --      1.0486                 1.0535                 1.2560
 Frc consts  --      1.2943                 1.3240                 1.6316
 IR Inten    --      4.9040                 5.6871                 3.4696

                     19                     20                     21
                      A                      A                      A
 Frequencies --   2958.2180              3000.1198              3006.2940
 Red. masses --      1.0354                 1.0489                 1.0879
 Frc consts  --      5.3385                 5.5622                 5.7929
 IR Inten    --     20.3473                32.6931                13.0123

                     22                     23                     24
                      A                      A                      A
 Frequencies --   3009.6944              3035.4230              3079.0413
 Red. masses --      1.0998                 1.1004                 1.1203
 Frc consts  --      5.8697                 5.9735                 6.2579
 IR Inten    --     23.5290                34.6835                35.3034

 - Thermochemistry -
 -------------------
 Temperature   298.150 Kelvin.  Pressure   1.00000 Atm.
 Atom     1 has atomic number  8 and mass  15.99491

 Molecular mass:    58.04186 amu.
 Principal axes and moments of inertia in atomic units:
                           1         2         3
     Eigenvalues --   101.30750 275.53633 310.09725
           X            0.69188   0.54096   0.47818
           Y           -0.42487   0.84053  -0.33614
           Z           -0.58376   0.02941   0.81139
 This molecule is an asymmetric top.
 Rotational symmetry number  1.
 Rotational temperatures (Kelvin)      0.85496     0.31435     0.27931
 Rotational constants (GHZ):          17.81449     6.54992     5.81992
 Zero-point vibrational energy     216914.7 (Joules/Mol)
                                   51.84386 (Kcal/Mol)
 Warning -- explicit consideration of   3 degrees of freedom as
           vibrations may cause significant error
 Vibrational temperatures:    290.82   511.30   574.73  1035.77  1149.14
          (Kelvin)           1261.14  1339.24  1450.75  1569.53  1603.63
                             1620.20  1655.70  1797.25  1972.13  2000.35
                             2082.53  2101.34  2136.40  4256.22  4316.50
                             4325.39  4330.28  4367.30  4430.05

 Zero-point correction=                           0.082618 (Hartree/Particle)
 Thermal correction to Energy=                    0.087139
 Thermal correction to Enthalpy=                  0.088084
 Thermal correction to Gibbs Free Energy=         0.056157
 Sum of electronic and zero-point Energies=           -193.026699
 Sum of electronic and thermal Energies=              -193.022178
 Sum of electronic and thermal Enthalpies=            -193.021234
 Sum of electronic and thermal Free Energies=         -193.053160

                     E (Thermal)             CV                S
                      KCal/Mol        Cal/Mol-Kelvin    Cal/Mol-Kelvin
 Total                   54.681             15.349             67.195
 Electronic               0.000              0.000              0.000
 Translational            0.889              2.981             38.096
 Rotational               0.889              2.981             23.674
 Vibrational             52.903              9.388              5.424
 Vibration     1          0.639              1.837              2.114
 Vibration     2          0.731              1.564              1.142
 Vibration     3          0.766              1.471              0.965

 Optimization completed.
    -- Stationary point found.
 Normal termination of Gaussian 16 at Sat Mar 16 14:08:50 2019.
