 Gaussian 16, Revision A.03,
 Gaussian 16:  ES64L-G16RevA.03 25-Dec-2016

 -----------------------------------------------------
 #P PBE1PBE/cc-pVDZ NMR SCF=Tight Int=UltraFine NoSymm
 -----------------------------------------------------

 ----------------------------------------------------
 nitromal_prop_00.inp -- generated by exatomic.v0.4.1
 ----------------------------------------------------
 Symbolic Z-matrix:
 Charge =  0 Multiplicity = 1

                          Input orientation:
 ---------------------------------------------------------------------
 Center     Atomic      Atomic             Coordinates (Angstroms)
 Number     Number       Type             X           Y           Z
 ---------------------------------------------------------------------
      1          1           0        0.113225   -2.246153    0.000000
      2          1           0       -3.114439   -1.153049    0.000000
      3          1           0       -2.604195    0.551321    0.000000
      4          1           0        3.331386   -0.303365    0.000000
      5          1           0        2.384715    1.195970    0.000000
      6          6           0        1.338138   -0.557407    0.000000
      7          8           0        1.439276   -1.815370    0.000000
      8          7           0        2.451087    0.187500    0.000000
      9          6           0        0.000000    0.054058    0.000000
     10          6           0       -1.130692   -0.832839    0.000000
     11          8           0       -0.937651   -2.120000    0.000000
     12          7           0       -0.189571    1.454266    0.000000
     13          8           0        0.796638    2.209915    0.000000
     14          8           0       -1.345536    1.920966    0.000000
     15          7           0       -2.401115   -0.440578    0.000000
 ---------------------------------------------------------------------

 SCF Done:  E(RPBE1PBE) =  -581.864458762     A.U. after   14 cycles

      1  H    Isotropic =    13.9329   Anisotropy =    31.1859

      2  H    Isotropic =    26.7955   Anisotropy =    10.0014

      3  H    Isotropic =    22.3511   Anisotropy =    12.6359

      4  H    Isotropic =    26.8884   Anisotropy =    10.2646

      5  H    Isotropic =    22.7602   Anisotropy =    11.3976

      6  C    Isotropic =    31.3926   Anisotropy =   127.5276

      7  O    Isotropic =    73.0153   Anisotropy =   352.1123

      8  N    Isotropic =   165.5536   Anisotropy =    93.2066

      9  C    Isotropic =    87.5105   Anisotropy =    70.4650

     10  C    Isotropic =    29.6644   Anisotropy =   137.8287

     11  O    Isotropic =   157.4955   Anisotropy =   205.5767

     12  N    Isotropic =  -114.2724   Anisotropy =   276.6250

     13  O    Isotropic =  -215.3039   Anisotropy =   550.3567

     14  O    Isotropic =  -204.8217   Anisotropy =   523.0782

     15  N    Isotropic =   168.6442   Anisotropy =    77.0410

 Alpha  occ. eigenvalues --  -19.25737 -19.23488 -19.23466 -19.21181 -14.62540
 Alpha  occ. eigenvalues --  -14.44467 -14.42541 -10.38552 -10.36701 -10.29001
 Alpha  occ. eigenvalues --   -1.24903  -1.14006  -1.08650  -1.06676  -0.97726
 Alpha  occ. eigenvalues --   -0.94799  -0.86253  -0.71139  -0.67721  -0.65517
 Alpha  occ. eigenvalues --   -0.59171  -0.58687  -0.56047  -0.54708  -0.53247
 Alpha  occ. eigenvalues --   -0.52293  -0.50086  -0.47590  -0.45454  -0.43966
 Alpha  occ. eigenvalues --   -0.42690  -0.33448  -0.32446  -0.31643  -0.31433
 Alpha  occ. eigenvalues --   -0.29878  -0.28972  -0.26361
 Alpha virt. eigenvalues --   -0.05849  -0.00754   0.06764   0.08600   0.11100
 Alpha virt. eigenvalues --    0.11278   0.14934   0.16337   0.18541   0.20593
 Alpha virt. eigenvalues --    0.25037   0.30081   0.33382   0.36223   0.36921

 Mulliken charges:
               1
     1  H    0.211740
     2  H    0.126154
     3  H    0.140066
     4  H    0.118536
     5  H    0.130219
     6  C    0.240563
     7  O   -0.355696
     8  N   -0.079347
     9  C   -0.017945
    10  C    0.233668
    11  O   -0.217310
    12  N    0.179963
    13  O   -0.317421
    14  O   -0.329514
    15  N   -0.063675
 Sum of Mulliken charges =  -0.00000

 Dipole moment (field-independent basis, Debye):
    X=             -0.6824    Y=             -1.3457    Z=             -0.0000  Tot=              1.5088
 Quadrupole moment (field-independent basis, Debye-Ang):
   XX=            -39.3649   YY=            -68.3719   ZZ=            -56.5084
   XY=              5.2390   XZ=             -0.0000   YZ=              0.0000

 Normal termination of Gaussian 16 at Tue Mar 19 17:24:19 2019.
