 Gaussian 16, Revision A.03,
 Gaussian 16:  ES64L-G16RevA.03 25-Dec-2016

 ----------------------------------------
 #P BLYP/def2TZVP TD=(Singlet, NStates=5)
 ----------------------------------------

 -----
 tddft
 -----
 Symbolic Z-matrix:
 Charge =  0 Multiplicity = 1

                         Standard orientation:
 ---------------------------------------------------------------------
 Center     Atomic      Atomic             Coordinates (Angstroms)
 Number     Number       Type             X           Y           Z
 ---------------------------------------------------------------------
      1          8           0        4.727826    0.348694   -0.250498
      2          6           0        3.388027    0.066204   -0.091735
      3          6           0        2.521234    1.150710   -0.143397
      4          6           0        1.123597    0.972646    0.007671
      5          6           0        0.200184    2.057827   -0.042468
      6          6           0       -1.155055    1.845070    0.108093
      7          6           0       -1.684563    0.538773    0.325207
      8          6           0       -0.805817   -0.532615    0.372166
      9          6           0        0.597382   -0.353777    0.219188
     10          6           0        2.875429   -1.245934    0.115424
     11          6           0       -3.200685    0.365985    0.501092
     12          6           0       -3.801228   -0.332878   -0.725346
     13          8           0       -3.652205   -1.700533   -0.684598
     14          8           0       -4.345593    0.230272   -1.654578
     15          6           0       -3.590449   -0.318986    1.833509
     16          1           0       -3.647045    1.367377    0.478782
     17          1           0       -3.211086    0.274075    2.674885
     18          1           0       -3.172898   -1.328453    1.907222
     19          1           0       -4.681716   -0.394343    1.929153
     20          1           0       -4.035678   -2.039091   -1.521770
     21          1           0        0.579770    3.066790   -0.204196
     22          1           0       -1.840779    2.691059    0.061061
     23          1           0       -1.181691   -1.544840    0.519047
     24          6           0        1.513861   -1.439263    0.265693
     25          1           0        3.544690   -2.100905    0.157053
     26          1           0        1.129407   -2.447094    0.424143
     27          1           0        2.931967    2.146751   -0.303859
     28          6           0        5.674650   -0.731467   -0.210461
     29          1           0        5.491826   -1.459724   -1.014933
     30          1           0        5.660001   -1.246587    0.761877
     31          1           0        6.653601   -0.266262   -0.358895
 ---------------------------------------------------------------------

 SCF Done:  E(RB-LYP) =  -767.629169793     A.U. after   19 cycles

 Excitation energies and oscillator strengths:

 Excited State   1:      Singlet-A      3.4837 eV  355.90 nm  f=0.0500  <S**2>=0.000
      60 -> 63         0.10627
      61 -> 62         0.67315
 This state for optimization and/or second-order correction.
 Total Energy, E(TD-HF/TD-DFT) =  -767.501147327
 Copying the excited state density for this state as the 1-particle RhoCI density.

 Excited State   2:      Singlet-A      3.7988 eV  326.38 nm  f=0.0457  <S**2>=0.000
      60 -> 62        -0.29412
      61 -> 63         0.61828
      61 -> 64         0.13493

 Excited State   3:      Singlet-A      4.2314 eV  293.01 nm  f=0.0676  <S**2>=0.000
      60 -> 62         0.46232
      61 -> 62        -0.11471
      61 -> 63         0.13253
      61 -> 64         0.49419

 Excited State   4:      Singlet-A      4.3234 eV  286.78 nm  f=0.0067  <S**2>=0.000
      59 -> 62         0.68786
      61 -> 65        -0.13033

 Excited State   5:      Singlet-A      4.6694 eV  265.53 nm  f=0.0258  <S**2>=0.000
      58 -> 62        -0.39803
      60 -> 62        -0.11034
      61 -> 64         0.13063
      61 -> 65         0.53448

 The electronic state is 1-A.
 Alpha  occ. eigenvalues --  -18.82026 -18.80721 -18.76347 -10.03459  -9.97096
 Alpha  occ. eigenvalues --   -9.96591  -9.93545  -9.92222  -9.92137  -9.91838
 Alpha  occ. eigenvalues --   -9.91668  -9.91598  -9.91106  -9.91060  -9.90968
 Alpha  occ. eigenvalues --   -9.90778  -9.90591  -1.00254  -0.96600  -0.92062
 Alpha  occ. eigenvalues --   -0.78800  -0.75057  -0.71374  -0.69475  -0.66223
 Alpha  occ. eigenvalues --   -0.65574  -0.61876  -0.59618  -0.56821  -0.54639
 Alpha  occ. eigenvalues --   -0.53517  -0.51855  -0.47645  -0.45957  -0.45342
 Alpha  occ. eigenvalues --   -0.42569  -0.41991  -0.41588  -0.41408  -0.40248
 Alpha  occ. eigenvalues --   -0.39568  -0.38944  -0.37845  -0.36947  -0.36308
 Alpha  occ. eigenvalues --   -0.35768  -0.34919  -0.34516  -0.33504  -0.33324
 Alpha  occ. eigenvalues --   -0.31572  -0.30963  -0.30025  -0.29559  -0.28192
 Alpha  occ. eigenvalues --   -0.27684  -0.26743  -0.24761  -0.22802  -0.20964
 Alpha  occ. eigenvalues --   -0.17974
 Alpha virt. eigenvalues --   -0.07070  -0.04562  -0.02314  -0.01334   0.00424
 Alpha virt. eigenvalues --    0.01647   0.03222   0.03694   0.04113   0.05143
 Alpha virt. eigenvalues --    0.05547   0.06085   0.06757   0.07491   0.08337

 Mulliken charges:
               1
     1  O   -0.252350
     2  C    0.311640
     3  C   -0.253051
     4  C    0.168076
     5  C   -0.171835
     6  C   -0.147490
     7  C    0.152667
     8  C   -0.281141
     9  C    0.176960
    10  C   -0.202983
    11  C    0.046232
    12  C    0.219455
    13  O   -0.358448
    14  O   -0.267635
    15  C   -0.336310
    16  H    0.059082
    17  H    0.108600
    18  H    0.112917
    19  H    0.108725
    20  H    0.300028
    21  H    0.083549
    22  H    0.087664
    23  H    0.091766
    24  C   -0.196250
    25  H    0.098734
    26  H    0.087436
    27  H    0.077626
    28  C   -0.180384
    29  H    0.114082
    30  H    0.113677
    31  H    0.128960
 Sum of Mulliken charges =  -0.00000

 Dipole moment (field-independent basis, Debye):
    X=              2.0971    Y=             -2.1242    Z=              1.2563  Tot=              3.2386
 Quadrupole moment (field-independent basis, Debye-Ang):
   XX=            -92.0069   YY=            -92.5358   ZZ=           -105.2444
   XY=             -1.7098   XZ=             -6.5008   YZ=              3.5713

 Normal termination of Gaussian 16 at Wed Jan 30 21:04:36 2019.
